# vtk DataFile Version 2.0
sampleSurface
ASCII
DATASET POLYDATA
POINTS 21323 double
-22.3626 135.588 1.95
-22.4897 135.647 1.95
-22.3626 135.588 6.82076
-22.2473 135.834 1.95
-24.9539 136.798 10.6698
-24.9539 136.798 10.8678
-7.78885 140.438 1.95
-7.78885 140.438 4.26075
-27.4284 137.947 6.70176
-27.4284 137.947 7.85276
-27.8204 138.129 6.70576
-26.9592 138.682 7.97476
-23.7924 139.194 10.6418
-29.3511 138.846 1.95
-29.361 138.851 1.95
-29.4833 138.908 1.95
-6.75047 142.493 6.50175
-14.2473 142.333 1.95
-14.2473 142.333 3.21676
-14.6966 142.527 1.95
-12.3506 142.75 1.95
-6.35733 143.251 1.95
-30.9808 139.61 10.7048
-30.9808 139.61 11.1228
-15.4518 142.852 1.95
-15.4518 142.852 3.16075
-13.9445 143.059 1.95
-13.7724 143.471 1.95
-13.7724 143.471 4.40876
-5.91113 144.128 1.95
-5.91113 144.128 4.70975
-15.1091 143.583 1.95
-33.272 140.675 1.95
-33.2714 140.677 1.95
-33.2449 140.747 1.95
-33.2553 140.752 1.95
-33.272 140.675 7.54776
-14.9052 144.018 1.95
-33.2449 140.747 7.54676
-14.9052 144.018 4.42375
-33.6762 140.935 1.95
-33.6762 140.935 6.88976
-33.5623 141.177 1.95
-7.70168 145.038 1.95
-15.6361 144.415 1.95
-15.8489 144.531 1.95
-15.8489 144.531 4.47175
-30.0248 142.068 10.6788
-30.0248 142.068 10.8418
-21.2296 144.277 10.5818
-21.2907 144.305 10.5828
-21.2907 144.305 10.6978
-17.6835 145.57 1.95
-17.6924 145.574 1.95
-18.1973 145.41 7.36676
-17.6835 145.57 6.78976
-17.9518 145.695 1.95
-18.0475 145.735 6.85576
-29.423 143.643 10.6618
-18.0475 145.735 7.36776
-14.9378 146.415 6.49776
-14.4306 147.427 1.95
-14.0255 148.254 1.95
-14.0255 148.254 4.49376
-27.7367 147.271 10.6208
-28.8316 150.332 7.39276
-28.6485 150.691 6.82276
-28.6485 150.691 7.38676
-28.9995 150.859 1.95
-29.0083 150.863 1.95
-29.0083 150.863 6.83576
-29.4109 155.232 1.95
-29.4109 155.232 5.20876
-28.9906 156.062 1.95
-33.315 157.21 1.95
-33.6651 157.387 1.95
-34.0143 157.564 1.95
-33.6651 157.387 9.61176
-37.8575 159.513 1.95
-37.8575 159.513 5.16676
-37.4639 160.294 1.95
-24.3535 165.217 5.17426
-24.2549 165.417 1.95
-23.8305 166.255 1.95
-28.9708 166.699 9.59176
-56.0769 161.358 2.02477
-56.0769 161.358 4.29277
-55.6845 162.325 2.02477
-55.7121 162.297 4.29777
-55.7121 162.297 6.69777
-55.6845 162.325 6.70177
-33.1648 168.824 5.14176
-55.4365 162.972 2.02477
-55.4365 162.972 6.75677
-55.6127 163.281 2.02477
-55.1873 163.529 2.02477
-55.6127 163.281 6.80577
-58.4138 163.22 4.29677
-58.4138 163.22 7.00777
-59.7007 162.905 2.02477
-59.7007 162.905 4.29277
-54.812 165.054 2.02477
-32.0901 170.957 1.95
-54.812 165.054 6.95677
-54.7183 165.458 2.02477
-54.7183 165.458 4.31277
-57.1653 164.646 4.30477
-57.1653 164.646 7.08377
-31.7063 171.718 1.95
-56.3645 165.579 2.02477
-56.3645 165.579 4.31077
-57.1489 165.856 4.30977
-55.5906 166.485 2.02477
-55.5906 166.485 4.31577
-57.1489 165.856 7.22177
-53.7956 167.308 2.02477
-54.4526 167.092 4.32077
-54.4526 167.092 6.45577
-53.7956 167.308 6.51677
-53.486 167.662 2.02477
-53.6352 167.689 2.02477
-53.486 167.662 6.31677
-53.6352 167.689 6.48477
-54.2098 167.778 2.02477
-19.2962 175.202 5.13976
-30.7467 173.622 2.93255
-54.2869 167.789 2.02477
-19.2962 175.202 6.82176
-54.2098 167.778 7.15477
-54.2869 167.789 7.18577
-54.2869 167.789 7.23977
-54.2701 167.849 7.24477
-19.099 175.602 1.95
-19.0628 175.675 1.95
-53.0382 168.727 2.02477
-53.0382 168.727 5.31977
-53.0382 168.727 6.22177
-20.8547 175.721 6.64076
-18.8656 176.075 5.13676
-18.8656 176.075 6.81376
-56.5468 167.872 6.35677
-56.5468 167.872 6.47077
-56.6787 167.915 4.31977
-60.2477 166.734 2.00377
-56.6787 167.915 6.32777
-56.3419 168.032 6.58977
-55.2646 168.402 7.38477
-60.2477 166.734 6.94277
-53.9944 169.054 7.11977
-53.9944 169.054 7.36377
-24.2766 176.012 9.57176
-54.801 169.308 7.45777
-20.1087 177.174 6.62876
-53.7346 170.065 6.16177
-55.044 169.772 7.08377
-52.1327 170.916 2.50577
-52.1327 170.916 4.28577
-55.0216 170.059 4.33177
-52.0581 171.079 2.02477
-55.0216 170.059 6.77677
-55.0216 170.059 7.00077
-52.7071 170.915 3.67677
-53.0277 170.905 3.33077
-53.0277 170.905 4.33877
-51.9836 171.242 5.21677
-51.9836 171.242 6.28177
-53.4252 170.904 4.33877
-53.4252 170.904 5.13977
-55.602 170.452 4.33277
-56.7176 170.131 2.02477
-55.602 170.452 6.34477
-53.1324 171.374 4.34077
-54.9503 170.883 4.33577
-54.9503 170.883 5.87177
-53.1656 171.518 4.34177
-53.1656 171.518 4.65077
-52.3924 172.247 7.16477
-54.0055 172.048 4.34177
-54.0055 172.048 5.03777
-54.0055 172.048 7.26377
-53.2869 172.501 6.86977
-53.2869 172.501 7.73777
-53.2761 172.821 7.62277
-54.7897 172.545 4.34277
-53.2652 172.965 7.56477
-54.7897 172.545 6.30277
-53.2652 172.965 7.99477
-52.9945 173.059 7.77877
-54.8004 172.622 4.34277
-51.8118 173.489 7.12377
-52.7513 173.169 7.98477
-54.8004 172.622 6.28077
-52.7513 173.169 8.97377
-50.8452 174.059 4.35677
-50.9837 174.009 6.49777
-50.8452 174.059 6.34577
-50.9504 174.086 6.42977
-50.9504 174.086 6.49077
-66.2251 169.198 2.00377
-66.2251 169.198 6.95277
-53.2319 173.926 7.21277
-53.177 174.777 6.56077
-53.177 174.777 6.88977
-50.1052 175.815 2.02477
-50.1052 175.815 4.36577
-53.7788 174.97 4.35477
-53.7788 174.97 6.24777
-56.7562 175.219 2.00377
-15.0678 183.577 1.95
-56.7562 175.219 6.94777
-26.1259 182.791 5.10427
-14.7195 184.264 1.95
-14.7195 184.264 5.10826
-25.8288 183.38 1.95
-53.7345 177.357 2.02477
-53.7345 177.357 4.36477
-14.3654 184.964 1.95
-19.5823 185.324 9.55177
-61.5512 177.141 2.00377
-24.5153 185.986 1.95
-61.5512 177.141 6.95577
-42.2708 182.985 1.95
-42.44 183.018 1.95
-24.3218 186.37 1.95
-62.0875 177.401 2.00377
-62.0875 177.401 6.95677
-35.788 184.928 1.95
-35.7977 184.926 1.95
-62.7832 177.677 2.00377
-24.027 186.955 3.89598
-60.9327 178.423 2.00377
-62.7832 177.677 6.95777
-86.4381 167.634 1.95
-60.9327 178.423 6.95577
-86.4381 167.634 6.82178
66.2029 176.865 1.95
65.8897 176.983 1.95
65.8822 176.986 1.98674
-61.4737 178.677 2.00377
-86.2074 168.198 1.95
-61.4737 178.677 6.95677
84.3115 169.253 1.95
84.4953 169.172 1.95
84.5263 169.158 1.95
84.3298 169.297 1.95
84.5447 169.202 1.95
66.2029 176.865 11.0787
66.0151 177.296 1.98674
65.8822 176.986 11.8657
84.3385 169.589 1.95
84.3115 169.253 11.0772
84.3529 169.584 1.95
84.4381 169.556 1.95
84.6536 169.462 1.95
66.0151 177.296 11.8657
55.779 181.181 1.95
55.5299 181.284 1.95
55.5299 181.284 1.98674
55.2882 181.385 1.95
84.3385 169.589 11.0772
84.4381 169.556 11.0772
84.6536 169.462 11.0772
55.8337 181.544 1.98674
-88.1912 168.353 1.95
66.2029 176.865 21.7447
65.8822 176.986 21.7447
-47.7014 184.203 1.95
55.8337 181.544 11.8594
93.3428 165.86 1.95
84.3115 169.253 21.7427
84.5263 169.158 21.7427
66.0151 177.296 21.7447
94.8073 165.253 1.95
84.3385 169.589 21.7427
84.4381 169.556 21.7427
84.6536 169.462 21.7427
-48.663 184.612 1.95
97.7143 164.047 1.95
94.8073 165.253 13.3479
45.1775 185.583 1.95
45.1775 185.583 1.98675
-47.3432 185.074 1.95
-47.3432 185.074 5.17177
55.8337 181.544 21.7372
-32.2329 188.444 1.95
-32.1861 188.486 1.95
45.6524 185.792 1.98675
85.1494 171.536 1.95
-48.2783 185.464 1.95
-48.3094 185.477 1.95
45.6524 185.792 11.8583
-48.3094 185.477 5.17177
-84.6318 172.048 1.95
94.8073 165.253 21.7372
-84.6318 172.048 6.82178
104.839 160.701 1.95
104.945 160.655 1.95
105.21 160.541 1.95
104.839 160.701 5.78473
105.21 160.541 5.78373
-41.5927 186.98 13.9588
-41.5927 186.98 14.4508
104.926 160.945 1.95
104.961 161.043 1.95
-40.8078 187.278 14.7658
-40.8078 187.278 15.0858
104.961 161.043 5.78473
-40.4932 187.505 15.3688
-40.4932 187.505 15.5278
45.6524 185.792 21.7298
-40.7527 187.643 15.7518
104.961 161.043 13.7582
-42.5311 187.366 15.0808
-10.5734 192.454 1.95
-10.5734 192.454 5.07977
-43.405 187.731 16.1248
104.961 161.043 21.7317
-44.0952 188.013 16.1238
106.359 163.31 1.95
-14.5196 194.45 1.95
-14.8881 194.636 1.95
-42.7906 189.582 19.1298
-15.248 194.818 1.95
-14.8881 194.636 9.53177
-42.012 189.963 20.1358
-42.012 189.963 20.1368
-55.6465 187.508 1.95
-41.7914 190.096 20.1448
-34.9654 192.135 13.9096
-55.9115 187.623 1.95
14.6555 195.675 1.95
14.6574 195.679 1.95
14.4696 195.752 1.95
14.4674 195.753 1.95
14.6555 195.675 7.31276
14.4674 195.753 7.32576
-39.0401 191.477 20.2428
-19.7319 195.477 1.95
123.268 153.011 1.95
123.344 152.981 1.95
123.268 153.011 5.04273
123.489 152.923 1.95
123.495 152.928 1.95
123.489 152.923 5.07573
123.495 152.928 5.07573
14.626 196.13 1.95
14.6279 196.134 1.95
-39.2168 191.697 20.5098
14.816 196.056 7.34376
-39.2168 191.697 20.6848
14.6279 196.134 7.35676
-42.5374 190.985 21.2668
14.816 196.056 10.0348
123.495 152.928 13.4012
125.015 152.329 1.95
125.021 152.333 1.95
-39.0684 192.112 20.8408
-39.1179 192.106 20.8448
-38.4602 192.322 20.0908
-39.1179 192.106 20.8948
-38.9906 192.146 20.8318
58.8497 187.19 21.7377
58.8497 187.19 22.4928
57.4576 187.875 21.7367
-19.0869 196.757 1.95
-19.0869 196.757 5.06677
57.4576 187.875 22.5017
-41.5482 192.107 21.8618
123.495 152.928 21.7267
-41.5482 192.107 21.9838
-41.6868 192.145 21.9818
-39.4163 192.781 21.5838
97.0115 171.258 21.7357
97.0115 171.258 22.5117
98.6412 170.81 21.7347
-40.5589 193.007 22.2778
-40.5589 193.007 22.6048
98.6412 170.81 22.5727
69.9497 185.888 1.95
130.154 150.197 1.95
130.601 149.973 1.95
130.615 150.006 1.95
-41.0673 193.869 22.5248
-41.0673 193.869 22.9068
57.3911 189.753 22.5047
69.8875 185.721 21.7452
57.3911 189.753 23.7387
88.244 178.965 7.82067
58.9545 189.548 21.7377
61.0818 188.936 21.7387
58.9545 189.548 22.4947
59.5789 189.466 21.7377
61.0818 188.936 22.4817
65.8985 187.432 21.7427
-41.6974 194.123 22.9068
65.8985 187.432 21.8747
59.5789 189.466 22.4907
58.9545 189.548 23.7307
64.0593 188.245 21.7417
70.4263 187.016 8.93596
64.0593 188.245 22.2227
96.2768 174.059 21.7357
-100.166 173.263 1.95
64.0593 188.245 22.7617
96.2768 174.059 22.4657
70.5529 187.337 1.95
57.3529 190.598 21.7367
99.3264 172.379 22.5857
-57.6046 191.477 10.6764
-100.166 173.263 6.82178
4.69178 200.195 1.95
60.695 189.609 21.7387
4.65447 200.211 1.95
88.5245 179.638 1.95
98.1441 173.142 22.5387
4.49474 200.276 1.95
60.695 189.609 22.4847
99.3264 172.379 23.7057
[...]
CELL_DATA 42360
FIELD attributes 1
zone 1 42360 float
0 0 0 0 0 0 0 0 0 0
0 0 0 0 0 0 0 0 0 0
0 0 0 0 0 0 0 0 0 0
0 0 0 0 0 0 0 0 0 0
0 0 0 0 0 0 0 0 0 0
0 0 0 0 0 0 0 0 0 0
0 0 0 0 0 0 0 0 0 0
0 0 0 0 0 0 0 0 0 0
0 0 0 0 0 0 0 0 0 0
0 0 0 0 0 0 0 0 0 0
0 0 0 0 0 0 0 0 0 0
0 0 0 0 0 0 0 0 0 0
0 0 0 0 0 0 0 0 0 0
0 0 0 0 0 0 0 0 0 0
0 0 0 0 0 0 0 0 0 0
0 0 0 0 0 0 0 0 0 0
0 0 0 0 0 0 0 0 0 0
0 0 0 0 0 0 0 0 0 0
0 0 0 0 0 0 0 0 0 0
0 0 0 0 0 0 0 0 0 0
0 0 0 0 0 0 0 0 0 0
0 0 0 0 0 0 0 0 0 0
0 0 0 0 0 0 0 0 0 0
0 0 0 0 0 0 0 0 0 0
0 0 0 0 0 0 0 0 0 0
0 0 0 0 0 0 0 0 0 0
0 0 0 0 0 0 0 0 0 0
0 0 0 0 0 0 0 0 0 0
0 0 0 0 0 0 0 0 0 0
0 0 0 0 0 0 0 0 0 0
0 0 0 0 0 0 0 0 0 0
0 0 0 0 0 0 0 0 0 0
0 0 0 0 0 0 0 0 0 0
0 0 0 0 0 0 0 0 0 0
0 0 0 0 0 0 0 0 0 0
0 0 0 0 0 0 0 0 0 0
0 0 0 0 0 0 0 0 0 0
0 0 0 0 0 0 0 0 0 0
0 0 0 0 0 0 0 0 0 0
0 0 0 0 0 0 0 0 0 0
0 0 0 0 0 0 0 0 0 0
0 0 0 0 0 0 0 0 0 0
0 0 0 0 0 0 0 0 0 0
0 0 0 0 0 0 0 0 0 0
0 0 0 0 0 0 0 0 0 0
0 0 0 0 0 0 0 0 0 0
0 0 0 0 0 0 0 0 0 0
0 0 0 0 0 0 0 0 0 0
0 0 0 0 0 0 0 0 0 0
0 0 0 0 0 0 0 0 0 0
0 0 0 0 0 0 0 0 0 0
0 0 0 0 0 0 0 0 0 0
0 0 0 0 0 0 0 0 0 0
0 0 0 0 0 0 0 0 0 0
0 0 0 0 0 0 0 0 0 0
0 0 0 0 0 0 0 0 0 0
0 0 0 0 0 0 0 0 0 0
0 0 0 0 0 0 0 0 0 0
0 0 0 0 0 0 0 0 0 0
0 0 0 0 0 0 0 0 0 0
0 0 0 0 0 0 0 0 0 0
0 0 0 0 0 0 0 0 0 0
0 0 0 0 0 0 0 0 0 0
0 0 0 0 0 0 0 0 0 0
0 0 0 0 0 0 0 0 0 0
0 0 0 0 0 0 0 0 0 0
0 0 0 0 0 0 0 0 0 0
0 0 0 0 0 0 0 0 0 0
0 0 0 0 0 0 0 0 0 0
0 0 0 0 0 0 0 0 0 0
0 0 0 0 0 0 0 0 0 0
0 0 0 0 0 0 0 0 0 0
0 0 0 0 0 0 0 0 0 0
0 0 0 0 0 0 0 0 0 0
0 0 0 0 0 0 0 0 0 0
0 0 0 0 0 0 0 0 0 0
0 0 0 0 0 0 0 0 0 0
0 0 0 0 0 0 0 0 0 0
0 0 0 0 0 0 0 0 0 0
0 0 0 0 0 0 0 0 0 0
0 0 0 0 0 0 0 0 0 0
0 0 0 0 0 0 0 0 0 0
0 0 0 0 0 0 0 0 0 0
0 0 0 0 0 0 0 0 1 1
1 1 1 1 1 1 1 1 1 1
1 1 2 2 2 2 2 2 2 2
2 2 2 2 2 2 2 2 2 2
2 2 2 2 2 2 2 2 2 2
2 2 2 2 2 2 2 2 2 2
2 2 2 2 2 2 2 2 2 2
2 2 2 2 2 2 2 2 2 2
2 2 2 2 2 2 2 2 2 2
2 2 2 2 2 2 2 2 2 2
2 2 2 2 2 2 2 2 2 2
2 2 2 2 2 2 2 2 2 2
2 2 2 2 2 2 2 2 2 2
2 2 2 2 2 2 2 2 2 2
2 2 2 2 2 2 2 2 2 2
2 2 2 2 2 2 2 2 2 2
2 2 2 2 2 2 2 2 2 2
2 2 2 2 2 2 2 2 2 2
2 2 2 2 2 2 2 2 2 2
2 2 2 2 2 2 2 2 2 2
2 2 2 2 2 2 2 2 2 2
2 2 2 2 2 2 2 2 2 2
2 2 2 2 2 2 2 2 2 2
2 2 2 2 2 2 2 2 2 2
2 2 2 2 2 2 2 2 2 2
2 2 2 2 2 2 2 2 2 2
2 2 2 2 2 2 2 2 2 2
2 2 2 2 2 2 2 2 2 2
2 2 2 2 2 2 2 2 2 2
2 2 2 2 2 2 2 2 2 2
2 2 2 2 2 2 2 2 2 2
2 2 2 2 2 2 2 2 2 2
2 2 2 2 2 2 2 2 2 2
2 2 2 2 2 2 2 2 2 2
2 2 2 2 2 2 2 2 2 2
2 2 2 2 2 2 2 2 2 2
2 2 2 2 2 2 2 2 2 2
2 2 2 2 2 2 2 2 2 2
2 2 2 2 2 2 2 2 2 2
2 2 2 2 2 2 2 2 2 2
2 2 2 2 2 2 2 2 2 2
2 2 2 2 2 2 2 2 2 2
2 2 2 2 2 2 2 2 2 2
2 2 2 2 2 2 2 2 2 2
2 2 2 2 2 2 2 2 2 2
2 2 2 2 2 2 2 2 2 2
2 2 2 2 2 2 2 2 2 2
2 2 2 2 2 2 2 2 2 2
2 2 2 2 2 2 2 2 2 2
2 2 2 2 2 2 2 2 2 2
2 2 2 2 2 2 2 2 2 2
2 2 2 2 2 2 2 2 2 2
2 2 2 2 2 2 2 2 2 2
2 2 2 2 2 2 2 2 2 2
2 2 2 2 2 2 3 3 3 3
3 3 3 3 3 3 3 3 3 3
4 4 4 4 4 4 4 4 4 4
4 4 4 4 4 4 4 4 4 4
4 4 4 4 4 4 4 4 4 4
4 4 4 4 4 4 4 4 4 4
4 4 4 4 4 4 4 4 4 4
4 4 4 4 4 4 4 4 4 4
4 4 4 4 4 4 4 4 4 4
4 4 4 4 4 4 4 4 4 4
4 4 4 4 4 4 4 4 4 4
4 4 4 4 4 4 4 4 4 4
4 4 4 4 4 4 4 4 4 4
4 5 5 5 5 5 5 5 6 6
6 6 6 6 6 6 6 6 6 6
6 6 6 6 6 6 6 6 6 6
6 6 6 6 6 6 6 6 6 6
6 6 7 7 7 7 7 7 7 7
8 8 8 8 8 8 8 8 8 8
8 8 8 8 8 8 8 8 8 8
8 8 8 8 8 8 8 8 8 8
8 8 8 8 8 8 8 8 8 8
8 8 8 8 8 8 8 8 8 8
8 8 8 8 8 8 8 8 8 8
8 8 8 8 8 8 8 8 8 8
8 8 8 8 8 8 8 8 8 8
8 8 8 8 8 8 8 8 8 8
8 8 8 8 8 8 8 8 8 8
8 8 8 8 8 8 8 8 8 8
8 8 8 8 8 8 8 8 8 8
8 8 8 8 8 8 8 8 8 8
8 8 8 8 8 9 9 9 9 9
9 9 9 9 9 9 9 9 9 9
9 9 9 9 9 9 9 9 9 9
9 9 9 9 9 9 9 9 9 9
9 9 9 9 9 9 9 9 9 10
10 10 10 10 10 10 10 10 10 10
10 10 10 11 11 11 11 11 11 11
11 11 11 11 11 11 11 11 11 11
11 11 11 11 11 11 11 11 11 11
11 11 11 11 11 11 11 11 11 11
11 11 11 11 11 11 11 11 11 11
11 11 11 11 11 11 11 11 11 11
11 11 11 11 11 11 11 11 11 11
11 11 11 11 12 12 12 12 12 12
12 12 12 12 12 12 12 12 12 12
12 12 12 12 12 12 12 12 12 12
12 12 12 12 12 12 12 12 12 12
12 12 12 12 12 12 12 12 12 12
12 12 12 12 12 12 12 12 12 12
12 12 12 12 12 12 12 12 12 12
12 12 12 12 12 12 12 12 12 12
12 12 12 12 12 12 12 12 12 12
12 12 12 12 12 12 12 12 12 12
12 12 12 12 12 12 12 12 12 12
12 12 12 12 12 12 12 12 12 12
12 12 12 12 12 12 12 12 12 12
12 12 12 12 12 12 12 12 12 12
12 12 12 12 12 12 12 12 12 12
12 12 12 12 12 12 12 12 12 12
12 12 12 12 12 12 12 12 12 12
12 12 12 12 12 12 12 12 12 12
12 12 12 12 12 12 12 12 12 12
12 12 12 12 12 12 12 12 12 12
12 12 12 12 12 12 12 12 12 12
12 12 12 12 12 12 12 12 12 12
12 12 12 12 12 12 12 12 12 12
12 12 12 12 12 12 12 12 12 12
12 12 12 12 12 12 12 12 12 12
12 12 12 12 12 12 12 12 12 12
12 12 12 12 12 12 12 12 12 12
12 12 12 12 12 12 12 12 12 12
12 12 12 12 12 12 12 12 13 13
13 13 13 13 13 13 13 13 13 13
13 13 14 14 14 14 14 14 14 14
14 14 14 14 14 14 15 15 15 15
15 15 15 15 15 15 15 15 15 15
15 15 15 15 15 15 15 15 15 15
15 15 15 15 15 15 15 15 15 15
15 15 15 15 15 15 15 15 15 15
15 15 15 15 15 15 15 15 15 15
15 15 15 15 15 15 15 15 15 15
15 15 15 15 15 15 15 15 15 15
15 15 15 15 15 15 15 15 15 15
15 15 15 15 15 15 15 15 15 15
15 15 15 15 15 15 15 15 15 15
15 15 15 15 15 15 15 15 15 15
15 15 15 15 15 15 15 15 15 15
15 15 15 15 15 15 15 15 15 15
15 15 15 15 15 15 15 15 15 15
15 15 15 15 15 15 15 15 15 15
15 15 15 15 15 15 15 15 15 15
15 15 15 15 15 15 15 15 15 15
15 16 16 16 16 16 16 16 16 16
16 16 16 16 16 16 16 16 16 16
16 16 16 16 16 16 16 16 16 16
16 16 16 16 16 16 16 16 16 16
16 16 16 16 16 16 16 16 16 16
16 16 16 16 16 16 16 16 16 16
16 16 16 16 16 16 16 16 16 16
16 16 16 16 16 16 16 16 16 16
16 16 16 16 16 16 16 16 16 16
16 16 16 16 16 16 16 16 16 16
16 16 16 16 16 16 16 16 16 16
16 16 16 16 16 16 16 16 16 16
16 16 16 16 16 16 16 16 16 16
16 16 16 16 16 16 16 16 16 16
16 16 16 16 16 16 16 16 16 16
16 16 16 16 16 16 16 16 16 16
16 16 16 16 16 16 16 16 16 16
16 16 16 16 16 16 16 16 16 16
16 16 16 16 16 16 16 16 16 16
16 16 16 16 16 16 16 16 16 16
16 16 16 16 16 16 16 16 16 16
16 16 16 16 16 16 16 16 16 16
16 16 16 16 16 16 16 16 16 16
16 16 16 16 17 17 17 17 17 17
17 17 17 17 17 17 17 17 17 17
17 17 17 17 17 17 17 17 17 17
17 17 17 17 17 17 17 17 17 17
17 17 17 17 17 17 17 17 17 17
17 17 17 17 17 17 17 17 17 17
17 17 17 17 17 17 17 17 17 17
17 17 17 17 17 17 17 17 17 17
17 17 17 17 17 17 17 17 17 17
17 17 17 17 17 17 17 17 17 17
17 17 17 17 17 17 17 17 17 17
17 17 17 17 17 17 17 17 17 17
17 17 17 17 17 17 17 17 17 17
17 17 17 17 17 17 17 17 17 17
17 17 17 17 17 17 17 17 17 17
17 17 17 17 17 17 17 17 17 17
17 17 17 17 17 17 17 17 17 17
17 17 17 17 17 17 17 17 17 17
17 17 17 17 17 17 17 17 17 17
17 17 17 17 17 17 17 17 17 17
17 17 17 17 17 17 17 17 17 17
17 17 17 17 17 17 17 17 17 17
17 17 17 17 17 17 17 17 17 17
17 17 17 17 17 17 17 17 17 17
17 17 17 17 17 17 17 17 17 17
17 17 17 17 17 17 17 17 17 17
17 17 17 17 17 17 17 17 17 17
17 17 17 17 17 17 17 17 17 17
17 17 17 17 17 17 17 17 17 17
17 17 17 17 17 17 17 17 17 17
17 17 17 17 17 17 17 17 17 17
17 17 17 17 17 17 17 17 17 17
17 17 17 17 17 17 17 17 17 17
17 17 17 17 17 17 17 17 17 17
17 17 17 17 17 17 17 17 17 17
17 17 17 17 17 17 17 17 17 17
17 17 17 17 17 17 17 17 17 17
17 17 17 17 17 17 17 17 17 17
17 17 17 17 17 17 17 17 17 17
17 17 17 17 17 17 17 17 17 17
18 18 18 18 18 18 18 18 18 18
18 18 18 18 18 18 18 18 18 18
18 18 18 18 18 18 18 18 18 18
18 18 18 18 18 18 18 18 18 18
18 18 18 18 18 18 18 18 18 18
18 18 18 18 18 18 18 18 18 18
18 18 18 18 18 18 18 18 18 18
18 18 18 18 18 18 18 18 18 18
18 18 18 18 18 18 18 18 18 18
18 18 18 18 18 18 18 18 18 18
18 18 18 18 18 18 18 18 18 18
18 18 18 18 18 18 18 18 18 18
18 18 18 18 18 18 18 18 18 18
18 18 18 18 18 18 18 18 18 18
18 18 18 18 18 18 18 18 18 18
18 18 18 18 18 18 18 18 18 18
18 18 18 18 18 18 18 18 18 18
18 18 18 18 18 18 18 18 18 18
18 18 18 18 18 18 18 18 18 18
18 18 18 18 18 18 18 18 18 18
18 18 18 18 18 18 18 18 18 18
18 18 18 18 18 18 18 18 18 18
18 18 18 18 18 18 18 18 18 18
18 18 18 18 18 18 18 18 18 18
18 18 18 18 18 18 18 18 18 18
18 18 18 18 18 18 18 18 18 18
18 18 18 18 18 18 18 18 18 18
18 18 18 18 18 18 18 18 18 18
18 18 18 18 18 18 18 18 18 18
18 18 18 18 18 18 18 18 18 18
18 18 18 18 18 18 18 18 18 18
18 18 18 18 18 18 18 18 18 18
18 18 18 18 18 18 18 18 18 18
18 18 18 18 18 18 18 18 18 18
18 18 18 18 18 18 18 18 18 18
18 18 18 18 18 18 18 18 18 18
18 18 18 18 18 18 18 18 18 18
18 18 18 18 18 18 18 18 18 18
18 18 18 18 18 18 18 18 18 18
18 18 18 18 18 18 18 18 18 18
18 18 18 18 18 18 18 18 18 18
18 18 18 19 19 19 19 19 19 19
19 19 19 19 19 19 19 19 19 19
19 19 19 19 19 19 19 19 19 19
19 19 19 19 19 19 20 20 20 20
20 20 20 20 20 20 20 20 20 20
20 20 20 20 20 20 20 20 20 20
20 20 20 20 20 20 20 20 20 20
20 20 20 20 20 20 20 20 20 20
20 20 20 20 20 20 20 20 20 20
20 20 20 20 20 20 20 20 20 20
20 20 20 20 20 20 20 20 20 20
20 20 20 20 20 20 20 20 20 20
20 20 20 20 20 20 20 20 20 20
20 20 20 20 20 20 20 20 20 20
20 20 20 20 20 20 20 20 20 20
20 20 20 20 20 20 20 20 20 20
20 20 20 20 20 20 20 20 20 20
20 20 20 20 20 20 20 20 20 20
20 20 20 20 20 20 20 20 20 20
20 20 20 20 20 20 20 20 20 20
20 20 20 20 20 20 20 20 20 20
20 20 20 20 20 20 20 20 20 20
20 20 20 20 20 20 20 20 20 20
20 20 20 20 20 20 20 20 20 20
20 20 20 20 20 20 20 20 20 20
20 20 20 20 20 20 20 20 20 20
20 20 20 20 20 20 20 20 20 20
20 20 20 20 20 20 20 20 20 20
20 20 20 20 20 20 20 20 20 20
20 20 20 20 20 20 20 20 20 20
20 20 20 20 20 20 20 20 20 20
20 20 20 20 20 20 20 20 20 20
20 20 20 20 20 20 20 20 20 20
20 20 20 20 20 20 20 20 20 20
20 20 20 20 20 20 20 20 20 20
20 20 20 20 20 20 20 20 20 20
20 20 20 20 20 20 20 20 20 20
20 20 20 20 20 20 20 20 20 20
20 20 20 20 20 20 20 20 20 20
20 20 20 20 20 20 20 20 20 20
20 20 20 20 20 20 20 20 20 20
20 20 20 20 20 20 20 20 20 20
20 20 20 20 20 20 20 20 20 20
20 20 20 20 20 20 20 20 20 20
20 20 20 20 20 20 20 20 20 20
20 20 20 20 20 20 20 20 20 20
20 20 20 20 20 20 20 20 20 20
20 20 20 20 20 20 20 20 20 20
20 20 20 20 20 20 20 20 20 20
20 20 20 20 20 20 20 20 20 20
20 20 20 20 20 20 20 20 20 20
20 20 20 20 20 20 20 20 20 20
20 20 20 20 20 20 20 20 20 20
20 20 20 20 20 20 20 20 20 20
20 20 20 20 20 20 20 20 20 20
20 20 20 20 20 20 20 20 20 20
20 20 20 20 20 20 20 20 20 20
20 20 20 20 20 20 20 20 20 20
20 20 20 20 20 20 20 20 20 20
20 20 20 20 20 20 20 20 20 20
20 20 20 20 20 20 20 20 20 20
20 20 20 20 20 20 20 20 20 20
20 20 20 20 20 20 20 20 20 20
20 20 20 20 20 20 20 20 20 20
20 20 20 20 20 20 20 20 20 20
20 20 20 20 20 20 20 20 20 20
20 20 20 20 20 20 20 20 20 20
20 20 20 20 20 20 20 20 20 20
20 20 20 20 20 20 20 20 20 20
20 20 20 20 20 20 20 20 20 20
20 20 20 20 20 20 20 20 20 20
20 20 20 20 20 20 20 20 20 20
20 20 20 20 20 20 20 20 20 20
20 20 20 20 20 20 20 20 20 20
20 20 20 20 20 20 20 20 20 20
20 20 20 20 20 20 20 20 20 20
20 20 20 20 20 20 20 20 20 20
20 20 20 20 20 20 20 20 20 20
20 20 20 20 20 20 20 20 20 20
20 20 20 20 20 20 20 20 20 20
20 20 20 20 20 20 20 20 20 20
20 20 20 20 20 20 20 20 20 20
20 20 20 20 20 20 20 20 20 20
20 20 20 20 20 20 20 20 20 20
20 20 20 20 20 20 20 20 20 20
20 20 20 20 20 20 20 20 20 20
20 20 20 20 20 20 20 20 20 20
20 20 20 20 20 20 20 20 20 20
20 20 20 20 20 20 20 20 20 20
20 20 20 20 20 20 20 20 20 20
20 20 20 20 20 20 20 20 20 20
20 20 20 20 20 20 20 20 20 20
20 20 20 20 20 20 20 20 20 20
20 20 20 20 20 20 20 20 20 20
20 20 20 20 20 20 20 20 20 20
20 20 20 20 20 20 20 20 20 20
20 20 20 20 20 20 20 20 20 20
20 20 20 20 20 20 20 20 20 20
20 20 20 20 20 20 20 20 20 20
20 20 20 20 20 20 20 20 20 20
20 20 20 20 20 20 20 20 20 20
20 20 20 20 20 20 20 20 20 20
20 20 20 20 20 20 20 20 20 20
20 20 20 20 20 20 20 20 20 20
20 20 20 20 20 20 20 20 20 20
20 20 20 20 20 20 20 20 20 20
20 20 20 20 20 20 20 20 20 20
20 20 20 20 20 20 20 20 20 20
20 20 20 20 20 20 20 20 20 20
20 20 20 20 20 20 20 20 20 20
20 20 20 20 20 20 20 20 20 20
20 20 20 20 20 20 20 20 20 20
20 20 20 20 20 20 20 20 20 20
20 20 20 20 20 20 20 20 20 20
20 20 20 20 20 20 20 20 20 20
20 20 20 20 20 20 20 20 20 20
20 20 20 20 20 20 20 20 20 20
20 20 20 20 20 20 20 20 20 20
20 20 20 20 20 20 20 20 20 20
20 20 20 20 20 20 20 20 20 20
20 20 20 20 20 20 20 20 20 20
20 20 20 20 20 20 20 20 20 20
20 20 20 20 20 20 20 20 20 20
20 20 20 20 20 20 20 20 20 20
20 20 20 20 20 20 20 20 20 20
20 20 20 20 20 20 20 20 20 20
20 20 20 20 20 20 20 20 20 20
20 20 20 20 20 20 20 20 20 20
20 20 20 20 20 20 20 20 20 20
20 20 20 20 20 20 20 20 20 20
20 20 20 20 20 20 20 20 20 20
20 20 20 20 20 20 20 20 20 20
20 20 20 20 20 20 20 20 20 20
20 20 20 20 20 20 20 20 20 20
20 20 20 20 20 20 20 20 20 20
20 20 20 20 20 20 20 20 20 20
20 20 20 20 20 20 20 20 20 20
20 20 20 20 20 20 20 20 20 20
20 20 20 20 20 20 20 20 20 20
20 20 20 20 20 20 20 20 20 20
20 20 20 20 20 20 20 20 20 20
20 20 20 20 20 20 20 20 20 20
20 20 20 20 20 20 20 20 20 20
20 20 20 20 20 20 20 20 20 20
20 20 20 20 20 20 20 20 20 20
20 20 20 20 20 20 20 20 20 20
20 20 20 20 20 20 20 20 20 20
20 20 20 20 20 20 20 20 20 20
20 20 20 20 20 20 20 20 20 20
20 20 20 20 20 20 20 20 20 20
20 20 20 20 20 20 20 20 20 20
20 20 20 20 20 20 20 20 20 20
20 20 20 20 20 20 20 20 20 20
20 20 20 20 20 20 20 20 20 20
20 20 20 20 20 20 20 20 20 20
20 20 20 20 20 20 20 20 20 20
20 20 20 20 20 20 20 20 20 20
20 20 20 20 20 20 20 20 20 20
20 20 20 20 20 20 20 20 20 20
20 20 20 20 20 20 20 20 20 20
20 20 20 20 20 20 20 20 20 20
20 20 20 20 20 20 20 20 20 20
20 20 20 20 20 20 20 20 20 20
20 20 20 20 20 20 20 20 20 20
20 20 20 20 20 20 20 20 20 20
20 20 20 20 20 20 20 20 20 20
20 20 20 20 20 20 20 20 20 20
20 20 20 20 20 20 20 20 20 20
20 20 20 20 20 20 20 20 20 20
20 20 20 20 20 20 20 20 20 20
20 20 20 20 20 20 20 20 20 20
20 20 20 20 20 20 20 20 20 20
20 20 20 20 20 20 20 20 20 20
20 20 20 20 20 20 20 20 20 20
20 20 20 20 20 20 20 20 20 20
20 20 20 20 20 20 20 20 20 20
20 20 20 20 20 20 20 20 20 20
20 20 20 20 20 20 20 20 20 20
20 20 20 20 20 20 20 20 20 20
20 20 20 20 20 20 20 20 20 20
20 20 20 20 20 20 20 20 20 20
20 20 20 20 20 20 20 20 20 20
20 20 20 20 20 20 20 20 20 20
20 20 20 20 20 20 20 20 20 20
20 20 20 20 20 20 20 20 20 20
20 20 20 20 20 20 20 20 20 20
20 20 20 20 20 20 20 20 20 20
20 20 20 20 20 20 20 20 20 20
20 20 20 20 20 20 20 20 20 20
20 20 20 20 20 20 20 20 20 20
20 20 20 20 20 20 20 20 20 20
20 20 20 20 20 20 20 20 20 20
20 20 20 20 20 20 20 20 20 20
20 20 20 20 20 20 20 20 20 20
20 20 20 20 20 20 20 20 20 20
20 20 20 20 20 20 20 20 20 20
20 20 20 20 20 20 20 20 20 20
20 20 20 20 20 20 20 20 20 20
20 20 20 20 20 20 20 20 20 20
20 20 20 20 20 20 20 20 20 20
20 20 20 20 20 20 20 20 20 20
20 20 20 20 20 20 20 20 20 20
20 20 20 20 20 20 20 20 20 20
20 20 20 20 20 20 20 20 20 20
20 20 20 20 20 20 20 20 20 20
20 20 20 20 20 20 20 20 20 20
20 20 20 20 20 20 20 20 20 20
20 20 20 20 20 20 20 20 20 20
20 20 20 20 20 20 20 20 20 20
20 20 20 20 20 20 20 20 20 20
20 20 20 20 20 20 20 20 20 20
20 20 20 20 20 20 20 20 20 20
20 20 20 20 20 20 20 20 20 20
20 20 20 20 20 20 20 20 20 20
20 20 20 20 20 20 20 20 20 20
20 20 20 20 20 20 20 20 20 20
20 20 20 20 20 20 20 20 20 20
20 20 20 20 20 20 20 20 20 20
20 20 20 20 20 21 21 21 21 21
21 21 21 21 21 21 21 21 21 22
22 22 22 22 22 22 22 22 22 22
22 22 22 22 22 22 22 22 22 22
22 22 22 22 22 22 22 22 22 22
22 22 22 22 22 22 22 22 22 22
22 22 22 22 22 22 22 22 22 22
22 22 22 22 22 22 22 22 22 22
22 22 22 22 22 22 22 22 22 22
22 22 22 22 22 22 22 22 22 22
22 22 22 22 22 22 22 22 22 22
22 22 22 22 22 22 22 22 22 22
22 22 22 22 22 22 22 22 22 22
22 22 22 22 22 22 22 22 22 22
22 22 22 22 22 22 22 22 22 22
22 22 22 22 22 22 22 22 22 22
22 22 22 22 22 22 22 22 22 22
22 22 22 22 22 22 22 22 22 22
22 22 22 22 22 22 22 22 22 22
22 22 22 22 22 22 22 22 22 22
22 22 22 22 22 22 22 22 22 22
22 22 22 22 22 22 22 22 22 22
22 22 22 22 22 22 22 22 22 22
22 22 22 22 22 22 22 22 22 22
22 22 22 22 22 22 22 22 22 22
22 22 22 22 22 22 22 22 22 22
22 22 22 22 22 22 22 22 22 22
22 22 22 22 22 22 22 22 22 22
22 22 22 22 22 22 22 22 22 22
22 22 22 22 22 22 22 22 22 22
22 22 22 22 22 22 22 22 22 22
22 22 22 22 22 22 22 22 22 22
22 22 22 22 22 22 22 22 22 22
22 22 22 22 22 22 22 22 22 22
22 22 22 22 22 22 22 22 22 22
22 22 22 22 22 22 22 22 22 22
22 22 22 22 22 22 22 22 22 22
22 22 22 22 22 22 22 22 22 22
22 22 22 22 22 22 22 22 22 22
22 22 22 22 22 22 22 22 22 22
22 22 22 22 22 22 22 22 22 22
22 22 22 22 22 22 22 22 22 22
22 22 22 22 22 22 22 22 22 22
22 22 22 22 22 22 22 22 22 22
22 22 22 22 22 22 22 22 22 22
22 22 22 22 22 22 22 22 22 22
22 22 22 22 22 22 22 22 22 22
22 22 22 22 22 22 22 22 22 22
22 22 22 22 22 22 22 22 22 22
22 22 22 22 22 22 22 22 22 22
22 22 22 22 22 22 22 22 22 22
22 22 22 22 22 22 22 22 22 22
22 22 22 22 22 22 22 22 22 22
22 22 22 22 22 22 22 22 22 22
22 22 22 22 22 22 22 22 22 22
22 22 22 22 22 22 22 22 22 22
22 22 22 22 22 22 22 22 22 22
22 22 22 22 22 22 22 22 22 22
22 22 22 22 22 22 22 22 22 22
22 22 22 22 22 22 22 22 22 22
22 22 22 22 22 22 22 22 22 22
22 22 22 22 22 22 22 22 22 22
22 22 22 22 22 22 22 22 22 22
22 22 22 22 22 22 22 22 22 22
22 22 22 22 22 22 22 22 22 22
22 22 22 22 22 22 22 22 22 22
22 22 22 22 22 22 22 22 22 22
22 22 22 22 22 22 22 22 22 22
22 22 22 22 22 22 22 22 22 22
22 22 22 22 22 22 22 22 22 22
22 22 22 22 22 22 22 22 22 22
22 22 22 22 22 22 22 22 22 22
22 22 22 22 22 22 22 22 22 22
22 22 22 22 22 22 22 22 22 22
22 22 22 22 22 22 22 22 22 22
22 22 22 22 22 22 22 22 22 22
22 22 22 22 22 22 22 22 22 22
22 22 22 22 22 22 22 22 22 22
22 22 22 22 22 22 22 22 22 22
22 22 22 22 22 22 22 22 22 22
22 22 22 22 22 22 22 22 22 22
22 22 22 22 22 22 22 22 22 22
22 22 22 22 22 22 22 22 22 22
22 22 22 22 22 22 22 22 22 22
22 22 22 22 22 22 22 22 22 22
22 22 22 22 22 22 22 22 22 22
22 22 22 22 22 22 22 22 22 22
22 22 22 22 22 22 22 22 22 22
22 22 22 22 22 22 22 22 22 22
22 22 22 22 22 22 22 22 22 22
22 22 22 22 22 22 22 22 22 22
22 22 22 22 22 22 22 22 22 22
22 22 22 22 22 22 22 22 22 22
22 22 22 22 22 22 22 22 22 22
22 22 22 22 22 22 22 22 22 22
22 22 22 22 22 22 22 22 22 22
22 22 22 22 22 22 22 22 22 22
22 22 22 22 22 22 22 22 22 22
22 22 22 22 22 22 22 22 22 22
22 22 22 22 22 22 22 22 22 22
22 22 22 22 22 22 22 22 22 22
22 22 22 22 22 22 22 22 22 22
22 22 22 22 22 22 22 22 22 22
22 22 22 22 22 22 22 22 22 22
22 22 22 22 22 22 22 22 22 22
22 22 22 22 22 22 22 22 22 22
22 22 22 22 22 22 22 22 22 22
22 22 22 22 22 22 22 22 22 22
22 22 22 22 22 22 22 22 22 22
22 22 22 22 22 22 22 22 22 22
22 22 22 22 22 22 22 22 22 22
22 22 22 22 22 22 22 22 22 22
22 22 22 22 22 22 22 22 22 22
22 22 22 22 22 22 22 22 22 22
22 22 22 22 22 22 22 22 22 22
22 22 22 22 22 22 22 22 22 22
22 22 22 22 22 22 22 22 22 22
22 22 22 22 22 22 22 22 22 22
22 22 22 22 22 22 22 22 22 22
22 22 22 22 22 22 22 22 22 22
22 22 22 22 22 22 22 22 22 22
22 22 22 22 22 22 22 22 22 22
22 22 22 22 22 22 22 22 22 22
22 22 22 22 22 22 22 22 22 22
22 22 22 22 22 22 22 22 22 22
22 22 22 22 22 22 22 22 22 22
22 22 22 22 22 22 22 22 22 22
22 22 22 22 22 22 22 22 22 22
22 22 22 22 22 22 22 22 22 22
22 22 22 22 22 22 22 22 22 22
22 22 22 22 22 22 22 22 22 22
22 22 22 22 22 22 22 22 22 22
22 22 22 22 22 22 22 22 22 22
22 22 22 22 22 22 22 22 22 22
22 22 22 22 22 22 22 22 22 22
22 22 22 22 22 22 22 22 22 22
22 22 22 22 22 22 22 22 22 22
22 22 22 22 22 22 22 22 22 22
22 22 22 22 22 22 22 22 22 22
22 22 22 22 22 22 22 22 22 22
22 22 22 22 22 22 22 22 22 22
22 22 22 22 22 22 22 22 22 22
22 22 22 22 22 22 22 22 22 22
22 22 22 22 22 22 22 22 22 22
22 22 22 22 22 22 22 22 22 22
22 22 22 22 22 22 22 22 22 22
22 22 22 22 22 22 22 22 22 22
22 22 22 22 22 22 22 22 22 22
22 22 22 22 22 22 22 22 22 22
22 22 22 22 22 22 22 22 22 22
22 22 22 22 22 22 22 22 22 22
22 22 22 22 22 22 22 22 22 22
22 22 22 22 22 22 22 22 22 22
22 22 22 22 22 22 22 22 22 22
22 22 22 22 22 22 22 22 22 22
22 22 22 22 22 22 22 22 22 22
22 22 22 22 22 22 22 22 22 22
22 22 22 22 22 22 22 22 22 22
22 22 22 22 22 22 22 22 22 22
22 22 22 22 22 22 22 22 22 22
22 22 22 22 22 22 22 22 22 22
22 22 22 22 22 22 22 22 22 22
22 22 22 22 22 22 22 22 22 22
22 22 22 22 22 22 22 22 22 22
22 22 22 22 22 22 22 22 22 22
22 22 22 22 22 22 22 22 22 22
22 22 22 22 22 22 22 22 22 22
22 22 22 22 22 22 22 22 22 22
22 22 22 22 22 22 22 22 22 22
22 22 22 22 22 22 22 22 22 22